|===============================================================================
|
|  DFTB+ release 18.1
|
|  Copyright (C) 2018  DFTB+ developers group
|
|===============================================================================
|
|  When publishing results obtained with DFTB+, please cite the following
|  reference:
|
|  * B. Aradi, B. Hourahine and T. Frauenheim,
|    DFTB+, a Sparse Matrix-Based Implementation of the DFTB Method,
|    J. Phys. Chem. A, 111 5678 (2007).  [doi: 10.1021/jp070186p]
|
|  You should also cite additional publications crediting the parametrization
|  data you use. Please consult the documentation of the SK-files for the
|  references.
|
|===============================================================================


***  Parsing and initializing

Parser version: 5

Interpreting input file 'dftb_in.hsd'
--------------------------------------------------------------------------------
Reading SK-files:
  /home/yagi/pgm/dftb/slako/3ob-3-1/H-H.skf
  /home/yagi/pgm/dftb/slako/3ob-3-1/H-C.skf
  /home/yagi/pgm/dftb/slako/3ob-3-1/H-N.skf
  /home/yagi/pgm/dftb/slako/3ob-3-1/H-O.skf
  /home/yagi/pgm/dftb/slako/3ob-3-1/H-P.skf
  /home/yagi/pgm/dftb/slako/3ob-3-1/C-C.skf
  /home/yagi/pgm/dftb/slako/3ob-3-1/C-N.skf
  /home/yagi/pgm/dftb/slako/3ob-3-1/C-O.skf
  /home/yagi/pgm/dftb/slako/3ob-3-1/C-P.skf
  /home/yagi/pgm/dftb/slako/3ob-3-1/N-N.skf
  /home/yagi/pgm/dftb/slako/3ob-3-1/N-O.skf
  /home/yagi/pgm/dftb/slako/3ob-3-1/N-P.skf
  /home/yagi/pgm/dftb/slako/3ob-3-1/O-O.skf
  /home/yagi/pgm/dftb/slako/3ob-3-1/O-P.skf
  /home/yagi/pgm/dftb/slako/3ob-3-1/P-P.skf
Done.


Processed input in HSD format written to 'dftb_pin.hsd'

Starting initialization...
--------------------------------------------------------------------------------
OpenMP threads:              2
Chosen random seed:              2082192795
Mode:                        Static calculation
Self consistent charges:     Yes
SCC-tolerance:                 0.100000E-04
Max. scc iterations:                    100
Spin polarisation:           No
Nr. of up electrons:            61.000000
Nr. of down electrons:          61.000000
Periodic boundaries:         No
Diagonalizer:                Relatively robust (version 1)
Mixer:                       Broyden mixer
Mixing parameter:                  0.200000
Maximal SCC-cycles:                     100
Nr. of chrg. vec. in memory:              0
Force evaluation method:     Traditional                                                                                                                                                                                             
Electronic temperature:        0.100000E-07
Initial charges:             Read in from 'charges'
Included shells:             H:  s
                             C:  s, p
                             N:  s, p
                             O:  s, p
                             P:  s, p, d
Extra options:
                             Mulliken analysis
                             Force calculation
                             External charges specified
Force type                   original

--------------------------------------------------------------------------------

***  Geometry step: 0

 iSCC Total electronic   Diff electronic      SCC error    
    1   -0.57940019E+02    0.00000000E+00    0.22272475E-01
    2   -0.57940036E+02   -0.17227795E-04    0.16286942E-01
    3   -0.57940049E+02   -0.13007557E-04    0.18858157E-02
    4   -0.57940050E+02   -0.54844181E-06    0.53055658E-03
    5   -0.57940050E+02   -0.23559927E-07    0.16601765E-03
    6   -0.57940050E+02   -0.13207568E-08    0.59122043E-04
    7   -0.57940050E+02   -0.58602723E-09    0.16693644E-04
    8   -0.57940050E+02   -0.37339021E-10    0.40000783E-05
>> Charges saved for restart in charges
 
Total Energy:                      -57.2433590665 H        -1557.6711 eV
Total Mermin free energy:          -57.2433590665 H        -1557.6711  eV
