|===============================================================================
|
|  DFTB+ release 18.1
|
|  Copyright (C) 2018  DFTB+ developers group
|
|===============================================================================
|
|  When publishing results obtained with DFTB+, please cite the following
|  reference:
|
|  * B. Aradi, B. Hourahine and T. Frauenheim,
|    DFTB+, a Sparse Matrix-Based Implementation of the DFTB Method,
|    J. Phys. Chem. A, 111 5678 (2007).  [doi: 10.1021/jp070186p]
|
|  You should also cite additional publications crediting the parametrization
|  data you use. Please consult the documentation of the SK-files for the
|  references.
|
|===============================================================================


***  Parsing and initializing

Parser version: 5

Interpreting input file 'dftb_in.hsd'
--------------------------------------------------------------------------------
Reading SK-files:
  /home/yagi/pgm/dftb/slako/3ob-3-1/H-H.skf
  /home/yagi/pgm/dftb/slako/3ob-3-1/H-C.skf
  /home/yagi/pgm/dftb/slako/3ob-3-1/H-N.skf
  /home/yagi/pgm/dftb/slako/3ob-3-1/H-O.skf
  /home/yagi/pgm/dftb/slako/3ob-3-1/H-P.skf
  /home/yagi/pgm/dftb/slako/3ob-3-1/C-C.skf
  /home/yagi/pgm/dftb/slako/3ob-3-1/C-N.skf
  /home/yagi/pgm/dftb/slako/3ob-3-1/C-O.skf
  /home/yagi/pgm/dftb/slako/3ob-3-1/C-P.skf
  /home/yagi/pgm/dftb/slako/3ob-3-1/N-N.skf
  /home/yagi/pgm/dftb/slako/3ob-3-1/N-O.skf
  /home/yagi/pgm/dftb/slako/3ob-3-1/N-P.skf
  /home/yagi/pgm/dftb/slako/3ob-3-1/O-O.skf
  /home/yagi/pgm/dftb/slako/3ob-3-1/O-P.skf
  /home/yagi/pgm/dftb/slako/3ob-3-1/P-P.skf
Done.


Processed input in HSD format written to 'dftb_pin.hsd'

Starting initialization...
--------------------------------------------------------------------------------
OpenMP threads:              2
Chosen random seed:              2082108966
Mode:                        Static calculation
Self consistent charges:     Yes
SCC-tolerance:                 0.100000E-04
Max. scc iterations:                    100
Spin polarisation:           No
Nr. of up electrons:            61.000000
Nr. of down electrons:          61.000000
Periodic boundaries:         No
Diagonalizer:                Relatively robust (version 1)
Mixer:                       Broyden mixer
Mixing parameter:                  0.200000
Maximal SCC-cycles:                     100
Nr. of chrg. vec. in memory:              0
Force evaluation method:     Traditional                                                                                                                                                                                             
Electronic temperature:        0.100000E-07
Initial charges:             Set automatically (system chrg:  -0.300E+01)
Included shells:             H:  s
                             C:  s, p
                             N:  s, p
                             O:  s, p
                             P:  s, p, d
Extra options:
                             Mulliken analysis
                             Force calculation
                             External charges specified
Force type                   original

--------------------------------------------------------------------------------

***  Geometry step: 0

 iSCC Total electronic   Diff electronic      SCC error    
    1   -0.57749581E+02    0.00000000E+00    0.17846509E+01
    2   -0.57852068E+02   -0.10248659E+00    0.13366806E+01
    3   -0.57933357E+02   -0.81289332E-01    0.16683961E+00
    4   -0.57940156E+02   -0.67988993E-02    0.70852188E-01
    5   -0.57940549E+02   -0.39300643E-03    0.24057056E-01
    6   -0.57940622E+02   -0.73391742E-04    0.94149066E-02
    7   -0.57940628E+02   -0.52369498E-05    0.62016985E-02
    8   -0.57940628E+02   -0.71197617E-06    0.11278987E-02
    9   -0.57940629E+02   -0.14765563E-06    0.30984669E-03
   10   -0.57940629E+02   -0.13024511E-07    0.15920994E-03
   11   -0.57940629E+02    0.11038992E-09    0.88371832E-04
   12   -0.57940629E+02   -0.69415051E-09    0.96951519E-05
>> Charges saved for restart in charges
 
Total Energy:                      -57.2720019335 H        -1558.4505 eV
Total Mermin free energy:          -57.2720019335 H        -1558.4505  eV
