90
terachem gradient in au, energy -1771.7612358902, grad_rms 0.034435, grad_max 0.108374 on atom 2
 H       0.0752561293       0.0646004408     -0.0282207227
 C      -0.0797788487      -0.0610576769      0.0406474597
 H       0.0032058098       0.0019471793     -0.0012949382
 H      -0.0050388615       0.0042804741     -0.0002044178
 N       0.0100087071      -0.0168379007     -0.0206435329
 H      -0.0001762195      -0.0048636600      0.0088029590
 C      -0.0006620804       0.0248179234     -0.0439607087
 N       0.0110519271      -0.0224624507      0.0278909481
 H      -0.0110926491       0.0072306467     -0.0040780720
 H      -0.0012279399      -0.0065129414     -0.0081211841
 N      -0.0208782403      -0.0022022340      0.0102201765
 H       0.0106643918       0.0000567768      0.0002518614
 H       0.0022810817       0.0010886519      0.0039203375
 H       0.0843593444      -0.0064781712     -0.0478025950
 C      -0.0833350200       0.0021918210      0.0341029486
 H      -0.0051347531       0.0039304077     -0.0023680160
 H      -0.0020901296       0.0008486881     -0.0043214904
 C      -0.0335520595       0.0185377629      0.0649804003
 O       0.0146673160      -0.0161398927     -0.0184849326
 O       0.0138899760      -0.0110656529     -0.0337514845
 H      -0.0525109076      -0.0535928772     -0.0582612439
 C       0.0602975269       0.0452274819      0.0712238583
 H       0.0057300117      -0.0027908711     -0.0020462770
 H      -0.0027870756       0.0034991456     -0.0034097030
 C      -0.0150959078       0.0099170090     -0.0113699972
 O       0.0004199618      -0.0328649841     -0.0194882882
 O      -0.0047319919       0.0264475122      0.0383247891
 H      -0.0948095565       0.0215649213     -0.0385768753
 C       0.0923549014      -0.0219816884      0.0435906315
 H      -0.0001102838       0.0031804786      0.0036360026
 H      -0.0014508201      -0.0110242079      0.0013765600
 N       0.0043156908       0.0124636801     -0.0087170486
 H      -0.0086811317       0.0085446192      0.0154315655
 C       0.0008461470      -0.0000809986      0.0118535756
 H       0.0006904049       0.0048713728     -0.0007538591
 C      -0.0009341278      -0.0020234584      0.0056128532
 H       0.0048359697       0.0011382195      0.0010986691
 C      -0.0037373356      -0.0146892844     -0.0066442807
 C       0.0004027224      -0.0067399579      0.0010219728
 H       0.0081641380       0.0068723281     -0.0058006305
 H      -0.0016569305       0.0014671234      0.0005988711
 H      -0.0047453236       0.0071991535      0.0034941331
 C       0.0017729561      -0.0175327064     -0.0020887965
 H       0.0029983907       0.0068699251      0.0083119424
 C      -0.0064265965       0.0228744323     -0.0048318311
 H       0.0000934766      -0.0020836384     -0.0011358963
 C       0.0051492864      -0.0190266192      0.0040402576
 H       0.0021544079       0.0024990720      0.0052878541
 C      -0.0066428763       0.0099066375     -0.0080063861
 C      -0.0033802021      -0.0075954794     -0.0004638285
 H      -0.0011679883       0.0061780855     -0.0002800447
 H      -0.0017871308       0.0029957731     -0.0015644239
 H       0.0052055271      -0.0007999535      0.0020070915
 C      -0.0024889208      -0.0043381492      0.0000217119
 H       0.0030031348       0.0064975983      0.0039371021
 C       0.0030453258       0.0011333866      0.0013260487
 H       0.0008058153      -0.0014967239      0.0015916770
 C       0.0014519754      -0.0066717963     -0.0036755344
 C       0.0001822360      -0.0028763939     -0.0090091348
 C      -0.0005778393      -0.0054198241     -0.0008201998
 H      -0.0007197313       0.0070911743      0.0000928377
 H       0.0005303220       0.0019553927      0.0034075767
 H      -0.0051820186       0.0023388459     -0.0001410573
 C      -0.0039354569      -0.0033192302      0.0008821622
 H       0.0023354270       0.0009125677     -0.0017886158
 H      -0.0028339253      -0.0039987275      0.0020145227
 C       0.0126425361      -0.0046219696     -0.0004578939
 H       0.0042010576      -0.0009586116      0.0043735870
 H      -0.0034567101       0.0014382582     -0.0068729003
 C      -0.0108255949       0.0017334835      0.0133682897
 H       0.0007063004      -0.0020925923     -0.0028951167
 H       0.0044664182       0.0040383411      0.0082881840
 C       0.0037044151       0.0118651795     -0.0054167804
 C      -0.0014209024       0.0027237991     -0.0002568905
 H      -0.0004029878       0.0002919664     -0.0025760988
 H       0.0035531929      -0.0126859087      0.0092019001
 H      -0.0053150169       0.0078575635     -0.0102884539
 C      -0.0020599860       0.0013865686      0.0040009545
 H      -0.0034257701      -0.0056424792      0.0057720691
 H      -0.0038503005      -0.0002941621     -0.0059400899
 H       0.0070597690       0.0059809711     -0.0042562380
 O      -0.0048220795      -0.0066622436      0.0107509687
 H       0.0018320141      -0.0031109167      0.0008528039
 H      -0.0021467913       0.0091053245     -0.0124067102
 O       0.0017161320      -0.0102372726     -0.0141297504
 H      -0.0028593109      -0.0025375877     -0.0106928038
 H       0.0221310756      -0.0025968829      0.0045931473
 O      -0.0024391125      -0.0011770894      0.0018359062
 H       0.0081090764       0.0055483606     -0.0008959790
 H      -0.0012187958       0.0063493481      0.0038789763
