90
terachem gradient in au, energy -1771.6666593416, grad_rms 0.039550, grad_max 0.110123 on atom 28
 H       0.0712526440       0.0675193858     -0.0382347677
 C      -0.0786787270      -0.0603782025      0.0322716181
 H      -0.0104908515       0.0028891088     -0.0086772317
 H       0.0148297283      -0.0030246572     -0.0057842458
 N       0.0103199721       0.0048147890      0.0179364635
 H      -0.0053136153       0.0016011989      0.0084890668
 C      -0.0104934601      -0.0665412949      0.0339095059
 N      -0.0173209916       0.0193242929     -0.0539843890
 H       0.0174116094      -0.0007290985      0.0087059041
 H      -0.0024113437       0.0104387627     -0.0151335681
 N       0.0275477487       0.0053666178     -0.0084911284
 H      -0.0310474637       0.0190273205      0.0086409715
 H       0.0080497210      -0.0055733873      0.0061707786
 H       0.0840005761      -0.0092756840     -0.0451234046
 C      -0.0719074659       0.0073001699      0.0247672309
 H       0.0021125040       0.0101861659      0.0165735618
 H       0.0004093226      -0.0077047159      0.0080853978
 C      -0.0522541040       0.0310132648      0.0766097673
 O       0.0068907473      -0.0152350657     -0.0007105470
 O       0.0173234400      -0.0297013265     -0.0829710630
 H      -0.0596973263      -0.0506259436     -0.0521469781
 C       0.0626535922       0.0543294295      0.0574973894
 H      -0.0145167448       0.0029383364      0.0010797177
 H       0.0006419082      -0.0010590945     -0.0011303118
 C       0.0559817389      -0.0401598637     -0.0126781706
 O      -0.0317334137       0.0014455175      0.0013412622
 O      -0.0227598629       0.0223225729      0.0167402536
 H      -0.1037554341       0.0108168749     -0.0352815242
 C       0.0767191000      -0.0038880059      0.0158025229
 H       0.0171464030      -0.0170785955     -0.0103358747
 H       0.0105813971       0.0064382201      0.0158928948
 N       0.0015598858       0.0019332426      0.0171188628
 H      -0.0069557530      -0.0005348693      0.0160595306
 C      -0.0213396261       0.0207051759     -0.0051243283
 H       0.0083183414       0.0015085805     -0.0105710817
 C       0.0081595271      -0.0265849977      0.0159036663
 H       0.0090254728       0.0108967351      0.0194324117
 C      -0.0056688967       0.0024165802     -0.0192162658
 C      -0.0045647678      -0.0049663457     -0.0171646568
 H       0.0002019894       0.0003610407     -0.0038579670
 H       0.0088436071      -0.0123642994      0.0026522748
 H      -0.0072658020       0.0104215926     -0.0109846732
 C      -0.0206300858       0.0343808339      0.0190437923
 H       0.0186532591      -0.0150593963      0.0095549352
 C       0.0003326334      -0.0154804755     -0.0066944502
 H       0.0107875803       0.0086375085      0.0120913773
 C      -0.0177274188       0.0404882028      0.0100096967
 H       0.0075322413       0.0028007390     -0.0077567387
 C       0.0030312300      -0.0510212158     -0.0083202299
 C       0.0023116531       0.0099941533     -0.0013423740
 H      -0.0096103027      -0.0043366186      0.0128382535
 H       0.0113778143      -0.0002614122     -0.0114123435
 H       0.0017950257       0.0039920966      0.0092147259
 C      -0.0078520369       0.0005161736      0.0095258857
 H       0.0039697238       0.0070746944     -0.0176911386
 C      -0.0037696494      -0.0218280745      0.0097324561
 H       0.0154924163       0.0022266515      0.0038878974
 C      -0.0198232825       0.0388081856      0.0104891972
 C      -0.0068805342      -0.0292615379      0.0020214073
 C      -0.0040292366       0.0027520169      0.0024463338
 H      -0.0060786959      -0.0073882944     -0.0097895752
 H      -0.0127299814       0.0028049678      0.0083449765
 H       0.0161424940      -0.0069786551      0.0036476353
 C       0.0078670218       0.0090883574     -0.0104378643
 H       0.0079193142       0.0052961199      0.0043123812
 H       0.0075348992       0.0146126259     -0.0140276242
 C      -0.0023969041      -0.0172846116      0.0027197526
 H      -0.0097604148       0.0026579991      0.0000987227
 H       0.0017200106      -0.0036023506      0.0125933460
 C       0.0121967208      -0.0141617531     -0.0073082871
 H      -0.0077619585      -0.0040560905      0.0103374053
 H      -0.0125331818      -0.0121226389     -0.0083480429
 C       0.0238269332       0.0189085606      0.0032986408
 C       0.0141556141       0.0141736930     -0.0067751447
 H      -0.0043686102       0.0107423476      0.0110787651
 H      -0.0106465558       0.0010071805     -0.0181257211
 H       0.0022522924      -0.0161562537     -0.0021553238
 C       0.0061405218       0.0077222890     -0.0007560155
 H      -0.0046706669       0.0179512722     -0.0166465734
 H      -0.0009668804      -0.0061217825      0.0057921245
 H      -0.0106245142      -0.0204663159      0.0080987286
 O       0.0049363353      -0.0009975848     -0.0023444397
 H       0.0031821311       0.0048309241      0.0039338012
 H      -0.0117169403      -0.0000471666     -0.0091677670
 O       0.0134503048      -0.0037888839     -0.0048847965
 H       0.0011155559       0.0053773198     -0.0134418462
 H       0.0084703454      -0.0090008449      0.0082169027
 O       0.0062110325      -0.0091017449      0.0003553091
 H      -0.0084296359       0.0036567418     -0.0000714932
 H       0.0055445741       0.0156519791      0.0070409647
