90
terachem gradient in au, energy -1771.7167073993, grad_rms 0.040137, grad_max 0.154491 on atom 18
 H       0.0735835805       0.0642706109     -0.0357625018
 C      -0.0683490993      -0.0530162179      0.0342450407
 H       0.0026832790      -0.0095190215     -0.0030616888
 H      -0.0004344876      -0.0008331373     -0.0067200223
 N      -0.0201350543       0.0035879714      0.0049035799
 H       0.0005747081      -0.0029227243      0.0052450949
 C      -0.0097469825      -0.0057912960      0.0325257405
 N      -0.0122479111      -0.0070547392     -0.0258756198
 H       0.0185691284      -0.0033494283      0.0031726494
 H      -0.0057123716       0.0089531726     -0.0097039096
 N       0.0083528259      -0.0127721602     -0.0099404586
 H       0.0109115285      -0.0028707692      0.0074040176
 H      -0.0038975897       0.0147485178     -0.0103719750
 H       0.0847878606      -0.0091444603     -0.0433840804
 C      -0.1110611396       0.0110693232     -0.0016592240
 H       0.0007797705       0.0042124990      0.0082154127
 H       0.0043659326      -0.0042648458      0.0059542017
 C      -0.0202312136       0.0452070515      0.1463364281
 O       0.0214720985      -0.0359627610     -0.0409341758
 O       0.0055429116      -0.0253486570     -0.0810756169
 H      -0.0560852332      -0.0532270680     -0.0545276758
 C       0.0724349969       0.0283980704      0.0694444618
 H      -0.0034373090       0.0026884579      0.0012876759
 H       0.0021556018       0.0110537042     -0.0064430479
 C      -0.0039864337      -0.0100773266     -0.0161469203
 O      -0.0142484427       0.0084568634      0.0171118348
 O      -0.0065230771       0.0043222201      0.0025114323
 H      -0.0980422799       0.0158050812     -0.0367332097
 C       0.0922492686      -0.0332510831      0.0487645037
 H       0.0060321031       0.0032997323     -0.0052542252
 H       0.0050752667       0.0020553646     -0.0013562519
 N      -0.0080888424      -0.0057980021      0.0210958321
 H      -0.0099235094       0.0047123231     -0.0072114575
 C      -0.0029760945       0.0042874763     -0.0032376467
 H       0.0040544006       0.0075461259      0.0131366250
 C      -0.0015382458       0.0235878107     -0.0108689045
 H       0.0070346621      -0.0072097724     -0.0007299976
 C      -0.0001046671       0.0064813826      0.0321869311
 C       0.0055890964       0.0045431333      0.0104053086
 H      -0.0141486181      -0.0088988009     -0.0032858578
 H      -0.0035160453       0.0095471239     -0.0243854223
 H       0.0090391219      -0.0108355996     -0.0151447354
 C      -0.0032575586       0.0030903277      0.0035341144
 H       0.0071699983      -0.0031213602      0.0013639365
 C      -0.0039876219      -0.0220405772      0.0092289082
 H       0.0078446380       0.0090364943      0.0053707475
 C      -0.0055443819       0.0338717977     -0.0053579846
 H       0.0023987467      -0.0067814058     -0.0051479327
 C       0.0020643637      -0.0187159882      0.0242426728
 C       0.0043401302       0.0062288071      0.0067244984
 H       0.0076603031      -0.0095592702     -0.0026577210
 H      -0.0034731430      -0.0081952060      0.0005281097
 H      -0.0061167142       0.0084449679     -0.0091557391
 C       0.0029406731       0.0233566987     -0.0086353089
 H      -0.0046576523      -0.0041964444     -0.0154719575
 C      -0.0157998965      -0.0041190010     -0.0028090577
 H       0.0108552715      -0.0049690900      0.0042405791
 C       0.0070263770       0.0254307711      0.0037438705
 C       0.0070426216      -0.0206100691      0.0203525223
 C      -0.0015797981       0.0139240102      0.0112959555
 H      -0.0025493087      -0.0133499266      0.0010441041
 H       0.0050051357       0.0028748058     -0.0031183504
 H      -0.0117370036      -0.0030468944     -0.0091918991
 C      -0.0059672991       0.0029177438     -0.0066327716
 H       0.0099746004      -0.0065008262     -0.0040135836
 H       0.0000853071       0.0070196514     -0.0065815774
 C      -0.0067698439       0.0130710117     -0.0012980623
 H       0.0062752697      -0.0011179951     -0.0020223405
 H       0.0024883518      -0.0095810048      0.0091067866
 C      -0.0068728073       0.0135484910     -0.0117755704
 H       0.0008904761      -0.0037933390     -0.0032448800
 H       0.0031606831      -0.0066073858      0.0059235289
 C      -0.0198341579      -0.0381188263      0.0146852695
 C      -0.0165999558      -0.0065761332      0.0046098579
 H       0.0121537621      -0.0028504021     -0.0115501132
 H      -0.0007118486       0.0179579766     -0.0140029502
 H       0.0147514705       0.0036902796      0.0083621988
 C       0.0121631540      -0.0067270021     -0.0036175481
 H      -0.0052163566      -0.0003374486     -0.0034657986
 H       0.0022116983       0.0131107344      0.0136769192
 H      -0.0061841862       0.0012888869     -0.0086414479
 O       0.0093091220       0.0021695991     -0.0192645230
 H       0.0018470746       0.0058362995      0.0111083770
 H      -0.0152416034      -0.0051198575      0.0022583835
 O       0.0237564696      -0.0031240477      0.0100681993
 H      -0.0001311655       0.0055939709     -0.0229416026
 H       0.0016251108      -0.0111922274      0.0014258621
 O       0.0058786686      -0.0068564486     -0.0205172660
 H      -0.0065860943       0.0031035872      0.0080126831
 H       0.0047149502       0.0143005522      0.0191228930
