90
terachem gradient in au, energy -1771.7011653400, grad_rms 0.034329, grad_max 0.108433 on atom 28
 H       0.0721861472       0.0662454022     -0.0380436163
 C      -0.0699704541      -0.0548512436      0.0286482696
 H      -0.0058156246      -0.0040037638     -0.0055780947
 H       0.0074898164      -0.0038687136     -0.0085160150
 N      -0.0030243498       0.0012521375      0.0295660501
 H      -0.0027740770       0.0033904040      0.0007350344
 C      -0.0099454884      -0.0394434829      0.0121720907
 N      -0.0080640359       0.0052293624     -0.0372958118
 H       0.0154620035      -0.0010454631      0.0067718484
 H      -0.0048311204       0.0106586166     -0.0124506571
 N       0.0033754950      -0.0030485506      0.0088568764
 H      -0.0035598296       0.0063694985      0.0077674230
 H       0.0033413608       0.0074700033     -0.0061767370
 H       0.0822557291      -0.0086727298     -0.0457403084
 C      -0.0966814861       0.0152863673      0.0098056958
 H       0.0051333850       0.0107028375      0.0192524213
 H       0.0023552439      -0.0118223945      0.0115037646
 C      -0.0128826195      -0.0167760118     -0.0273326445
 O       0.0028369785      -0.0153026471     -0.0047761706
 O       0.0050348923       0.0135573064      0.0322509074
 H      -0.0592751060      -0.0505490841     -0.0531046845
 C       0.0735129613       0.0252665354      0.0559315494
 H      -0.0162848978       0.0095108910      0.0098159762
 H       0.0042429188       0.0090603641     -0.0063420045
 C       0.0324565114      -0.0038774688      0.0159941798
 O      -0.0214667293      -0.0050821979      0.0000920280
 O      -0.0224910491       0.0063712708     -0.0099462121
 H      -0.1016394401       0.0122997354     -0.0357176283
 C       0.0804769417      -0.0166447374      0.0332143998
 H       0.0132406973      -0.0096849964     -0.0094965162
 H       0.0109344000       0.0053315673      0.0063136294
 N      -0.0019109885       0.0032305843      0.0233736070
 H      -0.0080680492       0.0005312892      0.0032578357
 C      -0.0164428036       0.0077291144     -0.0010792904
 H       0.0071779856       0.0038320343     -0.0020630489
 C       0.0045208262       0.0087329009     -0.0035792031
 H       0.0090807217       0.0037748670      0.0154559682
 C      -0.0004902703      -0.0110470093      0.0103311699
 C       0.0020413941       0.0012111595     -0.0056974853
 H      -0.0078731717      -0.0047939663     -0.0029501359
 H       0.0035407736      -0.0036568801     -0.0101587794
 H      -0.0004862422       0.0016709300     -0.0133352156
 C      -0.0207542839       0.0292416554     -0.0047680251
 H       0.0158154175      -0.0071323177      0.0137234013
 C       0.0028831449      -0.0259135362      0.0067723050
 H       0.0099925489       0.0102464307      0.0100161985
 C      -0.0174378824       0.0167530324     -0.0079669913
 H       0.0079854321       0.0045448981      0.0003125397
 C       0.0047524989      -0.0176188210      0.0092970244
 C       0.0042320465       0.0035800146      0.0027132889
 H      -0.0040204324      -0.0064427031      0.0072624437
 H       0.0066347564      -0.0027800055     -0.0080164108
 H      -0.0030103406       0.0071437983      0.0000122515
 C      -0.0071812915      -0.0048566671      0.0019605715
 H       0.0017027301       0.0053176704     -0.0164199769
 C      -0.0102956367      -0.0027382665     -0.0023885918
 H       0.0148884408      -0.0004599835      0.0047432437
 C      -0.0051974734       0.0081837271      0.0150875138
 C      -0.0040171926       0.0014466675      0.0098021426
 C      -0.0031946711       0.0082468496      0.0028569604
 H      -0.0048294164      -0.0136615708     -0.0049875031
 H      -0.0065293974       0.0024580931      0.0040433668
 H       0.0060848324      -0.0060156816     -0.0011382724
 C      -0.0000174812       0.0062017652     -0.0078305597
 H       0.0100613358      -0.0011399533      0.0014699224
 H       0.0070569927       0.0128246844     -0.0127454458
 C      -0.0120287691       0.0008320932     -0.0078693325
 H      -0.0031416437       0.0013587698     -0.0006068533
 H       0.0055701711      -0.0101223788      0.0201735710
 C       0.0134618891      -0.0019874301     -0.0202084387
 H      -0.0099081242      -0.0052204403      0.0088176512
 H      -0.0074413656      -0.0107210382     -0.0025820163
 C       0.0053283682      -0.0044845258      0.0144914557
 C       0.0007912757      -0.0014682795     -0.0011097084
 H       0.0026332865       0.0062136338      0.0022889402
 H      -0.0077561919       0.0147323400     -0.0199503184
 H       0.0090219637      -0.0084090903      0.0041970908
 C       0.0125947670      -0.0025117076     -0.0043969002
 H      -0.0057982818       0.0114393615     -0.0119375577
 H       0.0012067888       0.0036686924      0.0114894395
 H      -0.0109327779      -0.0112280870      0.0006884638
 O       0.0141516353       0.0046042313     -0.0242725865
 H       0.0023359979       0.0097366292      0.0125383883
 H      -0.0205599843      -0.0113566922      0.0062051960
 O       0.0279359106       0.0005841115      0.0127429107
 H       0.0008382064       0.0080844467     -0.0239054118
 H      -0.0064534927      -0.0169567438     -0.0005052150
 O       0.0106047384      -0.0086900300     -0.0195460874
 H      -0.0156434136       0.0012760963      0.0080081979
 H       0.0080224655       0.0176393311      0.0179413888
