|===============================================================================
|
|  DFTB+ release 18.1
|
|  Copyright (C) 2018  DFTB+ developers group
|
|===============================================================================
|
|  When publishing results obtained with DFTB+, please cite the following
|  reference:
|
|  * B. Aradi, B. Hourahine and T. Frauenheim,
|    DFTB+, a Sparse Matrix-Based Implementation of the DFTB Method,
|    J. Phys. Chem. A, 111 5678 (2007).  [doi: 10.1021/jp070186p]
|
|  You should also cite additional publications crediting the parametrization
|  data you use. Please consult the documentation of the SK-files for the
|  references.
|
|===============================================================================


***  Parsing and initializing

Parser version: 5

Interpreting input file 'dftb_in.hsd'
--------------------------------------------------------------------------------
Reading SK-files:
  /home/yagi/devel/genesis/tests_qmmm/dftb/slako/3ob-3-1/H-H.skf
  /home/yagi/devel/genesis/tests_qmmm/dftb/slako/3ob-3-1/H-C.skf
  /home/yagi/devel/genesis/tests_qmmm/dftb/slako/3ob-3-1/H-N.skf
  /home/yagi/devel/genesis/tests_qmmm/dftb/slako/3ob-3-1/H-O.skf
  /home/yagi/devel/genesis/tests_qmmm/dftb/slako/3ob-3-1/C-C.skf
  /home/yagi/devel/genesis/tests_qmmm/dftb/slako/3ob-3-1/C-N.skf
  /home/yagi/devel/genesis/tests_qmmm/dftb/slako/3ob-3-1/C-O.skf
  /home/yagi/devel/genesis/tests_qmmm/dftb/slako/3ob-3-1/N-N.skf
  /home/yagi/devel/genesis/tests_qmmm/dftb/slako/3ob-3-1/N-O.skf
  /home/yagi/devel/genesis/tests_qmmm/dftb/slako/3ob-3-1/O-O.skf
Done.


Processed input in HSD format written to 'dftb_pin.hsd'

Starting initialization...
--------------------------------------------------------------------------------
OpenMP threads:              16
Chosen random seed:              1354645359
Mode:                        Static calculation
Self consistent charges:     Yes
SCC-tolerance:                 0.100000E-04
Max. scc iterations:                    100
Spin polarisation:           No
Nr. of up electrons:           111.000000
Nr. of down electrons:         111.000000
Periodic boundaries:         No
Diagonalizer:                Relatively robust (version 1)
Mixer:                       Broyden mixer
Mixing parameter:                  0.200000
Maximal SCC-cycles:                     100
Nr. of chrg. vec. in memory:              0
Force evaluation method:     Traditional                                                                                                                                                                                             
Electronic temperature:        0.100000E-07
Initial charges:             Read in from 'charges'
Included shells:             H:  s
                             C:  s, p
                             N:  s, p
                             O:  s, p
Full 3rd order correction    Yes
Damped SCC                   Yes
Damped species(s):           H                                                 
Extra options:
                             Mulliken analysis
                             Force calculation
                             External charges specified
Force type                   original

--------------------------------------------------------------------------------

***  Geometry step: 0

 iSCC Total electronic   Diff electronic      SCC error    
    1   -0.99375990E+02    0.00000000E+00    0.35599243E-01
    2   -0.99376125E+02   -0.13507858E-03    0.24666065E-01
    3   -0.99376191E+02   -0.66470114E-04    0.74762077E-02
    4   -0.99376197E+02   -0.51579960E-05    0.22991297E-02
    5   -0.99376197E+02   -0.48003930E-06    0.72411553E-03
    6   -0.99376197E+02   -0.81639357E-07    0.35256096E-03
    7   -0.99376197E+02   -0.65932113E-08    0.20506975E-03
    8   -0.99376197E+02   -0.17407302E-08    0.76059568E-04
    9   -0.99376197E+02   -0.47289461E-09    0.21955791E-04
   10   -0.99376197E+02   -0.46341597E-10    0.59870239E-05
>> Charges saved for restart in charges
 
Total Energy:                      -98.7225876353 H        -2686.3783 eV
Total Mermin free energy:          -98.7225876353 H        -2686.3783  eV
