|===============================================================================
|
|  DFTB+ release 18.1
|
|  Copyright (C) 2018  DFTB+ developers group
|
|===============================================================================
|
|  When publishing results obtained with DFTB+, please cite the following
|  reference:
|
|  * B. Aradi, B. Hourahine and T. Frauenheim,
|    DFTB+, a Sparse Matrix-Based Implementation of the DFTB Method,
|    J. Phys. Chem. A, 111 5678 (2007).  [doi: 10.1021/jp070186p]
|
|  You should also cite additional publications crediting the parametrization
|  data you use. Please consult the documentation of the SK-files for the
|  references.
|
|===============================================================================


***  Parsing and initializing

Parser version: 5

Interpreting input file 'dftb_in.hsd'
--------------------------------------------------------------------------------
Reading SK-files:
  /home/yagi/devel/genesis/tests_qmmm/dftb/slako/3ob-3-1/H-H.skf
  /home/yagi/devel/genesis/tests_qmmm/dftb/slako/3ob-3-1/H-C.skf
  /home/yagi/devel/genesis/tests_qmmm/dftb/slako/3ob-3-1/H-N.skf
  /home/yagi/devel/genesis/tests_qmmm/dftb/slako/3ob-3-1/H-O.skf
  /home/yagi/devel/genesis/tests_qmmm/dftb/slako/3ob-3-1/C-C.skf
  /home/yagi/devel/genesis/tests_qmmm/dftb/slako/3ob-3-1/C-N.skf
  /home/yagi/devel/genesis/tests_qmmm/dftb/slako/3ob-3-1/C-O.skf
  /home/yagi/devel/genesis/tests_qmmm/dftb/slako/3ob-3-1/N-N.skf
  /home/yagi/devel/genesis/tests_qmmm/dftb/slako/3ob-3-1/N-O.skf
  /home/yagi/devel/genesis/tests_qmmm/dftb/slako/3ob-3-1/O-O.skf
Done.


Processed input in HSD format written to 'dftb_pin.hsd'

Starting initialization...
--------------------------------------------------------------------------------
OpenMP threads:              16
Chosen random seed:              1354668743
Mode:                        Static calculation
Self consistent charges:     Yes
SCC-tolerance:                 0.100000E-04
Max. scc iterations:                    100
Spin polarisation:           No
Nr. of up electrons:           111.000000
Nr. of down electrons:         111.000000
Periodic boundaries:         No
Diagonalizer:                Relatively robust (version 1)
Mixer:                       Broyden mixer
Mixing parameter:                  0.200000
Maximal SCC-cycles:                     100
Nr. of chrg. vec. in memory:              0
Force evaluation method:     Traditional                                                                                                                                                                                             
Electronic temperature:        0.100000E-07
Initial charges:             Read in from 'charges'
Included shells:             H:  s
                             C:  s, p
                             N:  s, p
                             O:  s, p
Full 3rd order correction    Yes
Damped SCC                   Yes
Damped species(s):           H                                                 
Extra options:
                             Mulliken analysis
                             Force calculation
                             External charges specified
Force type                   original

--------------------------------------------------------------------------------

***  Geometry step: 0

 iSCC Total electronic   Diff electronic      SCC error    
    1   -0.99470940E+02    0.00000000E+00    0.79248665E-01
    2   -0.99471195E+02   -0.25493775E-03    0.51983708E-01
    3   -0.99471381E+02   -0.18596788E-03    0.39343511E-02
    4   -0.99471383E+02   -0.20236318E-05    0.23327915E-02
    5   -0.99471383E+02   -0.48170203E-06    0.71561818E-03
    6   -0.99471383E+02   -0.11735736E-07    0.42542732E-03
    7   -0.99471383E+02   -0.10835322E-07    0.89633824E-04
    8   -0.99471383E+02   -0.82394536E-09    0.33715520E-04
    9   -0.99471383E+02   -0.12751400E-09    0.52202597E-05
>> Charges saved for restart in charges
 
Total Energy:                      -98.7428608175 H        -2686.9300 eV
Total Mermin free energy:          -98.7428608175 H        -2686.9300  eV
