90
terachem gradient in au, energy -1771.7881152298, grad_rms 0.034913, grad_max 0.112507 on atom 15
 H       0.0752717572       0.0662141786     -0.0259232653
 C      -0.0769945758      -0.0660915635      0.0286119075
 H       0.0022590661      -0.0001998522     -0.0029145461
 H      -0.0008277487      -0.0000358968     -0.0027911884
 N      -0.0023742016       0.0057466470     -0.0009218141
 H      -0.0020703315      -0.0025685243      0.0004033206
 C      -0.0082744286      -0.0319272119      0.0350376399
 N      -0.0203714890       0.0263676782     -0.0279947948
 H       0.0058231206      -0.0054670936     -0.0041984485
 H       0.0025886363      -0.0103171580     -0.0039876390
 N       0.0221550707      -0.0045014944     -0.0123673842
 H      -0.0092095849       0.0117362505     -0.0043059725
 H       0.0050840013      -0.0014027891     -0.0000543340
 H       0.0803965443      -0.0028705158     -0.0499458982
 C      -0.0982699328       0.0123310861      0.0533735486
 H       0.0021327077       0.0049209835     -0.0044846099
 H       0.0001572190      -0.0106816604      0.0000317278
 C       0.0190229623      -0.0134290580     -0.0335944827
 O      -0.0246372195       0.0069648228      0.0182722473
 O       0.0115645962      -0.0019070714      0.0055013226
 H      -0.0522988126      -0.0522295440     -0.0581626788
 C       0.0698923389       0.0461703313      0.0685281027
 H      -0.0042888854       0.0005406938      0.0050074227
 H      -0.0037515720      -0.0020109199     -0.0036752637
 C       0.0071107566       0.0043991203     -0.0010232194
 O      -0.0081828007      -0.0191485991     -0.0097515942
 O      -0.0162560738       0.0233233911      0.0165081361
 H      -0.0933238462       0.0256972004     -0.0390206208
 C       0.0937537662      -0.0313359628      0.0407597226
 H      -0.0015367308       0.0010699804      0.0005018237
 H      -0.0029851691      -0.0053601245      0.0031385783
 N       0.0020671980       0.0066154434      0.0091330134
 H       0.0013367890       0.0145850489      0.0210988980
 C      -0.0080051162       0.0035892997     -0.0107559562
 H       0.0033284576       0.0023729730      0.0040318199
 C       0.0054664450      -0.0105959536      0.0046798837
 H       0.0027493916      -0.0036896489      0.0071046035
 C       0.0012173729       0.0174315104     -0.0011797331
 C       0.0011321777      -0.0000509641     -0.0047806016
 H      -0.0062603186      -0.0019686869      0.0006996998
 H       0.0003202459       0.0059763077      0.0023185528
 H       0.0055312615      -0.0007377247      0.0014600601
 C      -0.0021383080       0.0039855021      0.0164694166
 H      -0.0016935488      -0.0003177951     -0.0105689757
 C       0.0025456537      -0.0044977815     -0.0146425207
 H      -0.0011158617       0.0025179403      0.0069494754
 C      -0.0018449635       0.0330567367      0.0087167092
 H      -0.0022784682      -0.0116904834     -0.0090202981
 C       0.0061606077      -0.0378668829      0.0035914366
 C       0.0010234420       0.0112166221      0.0023214693
 H       0.0003169079       0.0016506050      0.0003534261
 H      -0.0033498059      -0.0009118976     -0.0003311454
 H      -0.0007435828      -0.0031984409     -0.0033189421
 C       0.0080621195       0.0468762522     -0.0017429582
 H      -0.0081314074      -0.0134896754     -0.0054180316
 C      -0.0022157057      -0.0506555964      0.0050749452
 H       0.0029858915       0.0138109462      0.0047718100
 C      -0.0002481758       0.0222619127      0.0027705112
 C      -0.0046546346      -0.0120271598      0.0025923149
 C      -0.0001961554       0.0063495157      0.0015692040
 H      -0.0005547113      -0.0007476657      0.0011166532
 H      -0.0012176364      -0.0028966383     -0.0039538377
 H       0.0024956217       0.0016235598      0.0015405044
 C      -0.0010619718       0.0034265687     -0.0062016989
 H      -0.0009124859       0.0008235522      0.0010090310
 H       0.0047982948      -0.0041381312     -0.0011648343
 C      -0.0024206662      -0.0041971770     -0.0020193628
 H       0.0007807747      -0.0002634559      0.0015288659
 H       0.0003168139      -0.0000899446      0.0015213366
 C       0.0048101653       0.0005266990      0.0001609528
 H       0.0021466656       0.0013224900      0.0022074248
 H      -0.0072290453      -0.0016727089      0.0013219217
 C       0.0040925806      -0.0059977379      0.0032356015
 C       0.0019856711       0.0000103743     -0.0009475672
 H      -0.0030079503      -0.0044602352     -0.0000056313
 H      -0.0058947178       0.0083464961     -0.0044125542
 H       0.0012477811       0.0005405811      0.0041647428
 C       0.0031091484      -0.0001973189     -0.0045384296
 H       0.0026578584       0.0015551883     -0.0028825504
 H      -0.0030711524      -0.0007981429     -0.0025458874
 H       0.0003612132       0.0005736489      0.0033535599
 O      -0.0013911600       0.0066987084     -0.0011048946
 H       0.0013862495      -0.0036415577      0.0021445773
 H      -0.0059980928      -0.0070346985      0.0045832775
 O       0.0069798082      -0.0047030896     -0.0129926290
 H      -0.0025459851      -0.0047610494     -0.0127971064
 H       0.0088753715      -0.0131628140     -0.0059036827
 O       0.0016990794       0.0091311721      0.0054855984
 H      -0.0005101783      -0.0004313111      0.0006620504
 H       0.0019800882       0.0022418123      0.0007521622
