90
terachem gradient in au, energy -1771.5454305042, grad_rms 0.060588, grad_max 0.149475 on atom 26
 H       0.0695312716       0.0708197893     -0.0364144452
 C      -0.1042378719      -0.0652345780      0.0426874196
 H      -0.0147504458       0.0102705010     -0.0103287902
 H       0.0260114003       0.0013178172      0.0015034121
 N       0.0594984549      -0.0119303093     -0.0170541219
 H      -0.0010560916      -0.0115825122      0.0315253679
 C      -0.0270853418      -0.0089283662     -0.1209673917
 N       0.0445025864      -0.0174487678      0.0793152390
 H      -0.0270508611       0.0147780754      0.0006353178
 H       0.0108772624      -0.0040063210     -0.0491653173
 N      -0.0357931367       0.0196392643      0.0386231294
 H      -0.0199047153       0.0169442180      0.0079952011
 H       0.0134133392      -0.0185380222      0.0227761119
 H       0.0814001342      -0.0082462530     -0.0539412145
 C      -0.0197485126       0.0074679044      0.1379257324
 H      -0.0005394518      -0.0176492983     -0.0098169592
 H      -0.0005594029       0.0148250646     -0.0121678024
 C       0.0004859308      -0.0456362659     -0.1114641099
 O      -0.0885170205       0.0504427401      0.0721249284
 O       0.0204258752      -0.0103784305     -0.0260362323
 H      -0.0605533963      -0.0491960045     -0.0531159419
 C       0.0471372701       0.0991535540      0.0676096536
 H      -0.0013297026      -0.0173065252     -0.0184211279
 H      -0.0071880286      -0.0199066770      0.0069048871
 C      -0.0086351603       0.0463166893      0.0022146735
 O       0.0262512247      -0.1209454993     -0.0838202856
 O      -0.0034816157       0.0511905075      0.0893154013
 H      -0.1068025749       0.0077669600     -0.0343720766
 C       0.0744061838      -0.0009107931      0.0085505731
 H       0.0222989319      -0.0233707298     -0.0101140125
 H       0.0096479519       0.0058924524      0.0277212980
 N       0.0009288465       0.0250057811     -0.0425822860
 H      -0.0013128515       0.0044300826      0.0615088923
 C      -0.0233426438       0.0048296853      0.0088133649
 H       0.0080618856       0.0020403928     -0.0246054476
 C       0.0103855308      -0.0339139866      0.0477993993
 H       0.0079081094       0.0141318567      0.0065046255
 C      -0.0112080934       0.0071669935     -0.0571036031
 C      -0.0157620333      -0.0234406711     -0.0200093788
 H       0.0142585035       0.0099536795     -0.0071755407
 H       0.0141356776      -0.0176146325      0.0136676416
 H      -0.0148109921       0.0213302090     -0.0086497945
 C      -0.0124667045      -0.0473772654      0.0197916365
 H       0.0211823837      -0.0100686533      0.0217834009
 C      -0.0107868153       0.1081672795     -0.0013067619
 H       0.0039903723      -0.0141613434     -0.0086468623
 C       0.0017223636      -0.0910184402      0.0396764602
 H       0.0078543951       0.0193536033     -0.0014084322
 C      -0.0075987913       0.0611280480     -0.0397518773
 C      -0.0089151542      -0.0073003129     -0.0152295188
 H      -0.0158373718      -0.0016361591      0.0181975830
 H       0.0178612774       0.0035117441     -0.0174988429
 H       0.0099500937       0.0023850790      0.0231774569
 C      -0.0148461039      -0.0323314418      0.0150462612
 H       0.0084260178       0.0151490400     -0.0128752297
 C       0.0263605059       0.0022151449      0.0415469907
 H       0.0027971900      -0.0112175680     -0.0091117225
 C      -0.0293206513      -0.0315093750      0.0123395016
 C      -0.0257912781       0.0420723672     -0.0290339608
 C       0.0001636685      -0.0322033081      0.0106383868
 H      -0.0084280194       0.0109275675     -0.0230185572
 H      -0.0176286865       0.0050511701      0.0111243715
 H       0.0219288196      -0.0046441731      0.0066080627
 C       0.0220253900      -0.0118590046     -0.0074503985
 H       0.0019709464       0.0202535136      0.0112833079
 H       0.0060604161       0.0162116074     -0.0142859977
 C       0.0367578138      -0.0476431450      0.0257180482
 H      -0.0224350024       0.0026247014      0.0028624834
 H      -0.0106606698       0.0113191403     -0.0109914244
 C      -0.0273203344      -0.0391854239      0.0487836053
 H       0.0187635014       0.0043649884     -0.0034550335
 H      -0.0140070271      -0.0113369612     -0.0165772743
 C       0.0429023859       0.0667379470     -0.0338454960
 C       0.0313030325       0.0498954912     -0.0086001679
 H      -0.0104302127       0.0115792547      0.0174574311
 H      -0.0133212888      -0.0248427595     -0.0119920224
 H      -0.0078789826      -0.0254882599     -0.0135665178
 C      -0.0019245070       0.0224629075      0.0169654621
 H      -0.0020288010       0.0248854279     -0.0224808629
 H      -0.0055214007      -0.0204737600     -0.0051258944
 H      -0.0085584134      -0.0299345746      0.0131144414
 O      -0.0232238523      -0.0094150563      0.0648567070
 H       0.0036298183      -0.0218420924     -0.0273028898
 H       0.0155827724       0.0323100708     -0.0409570600
 O      -0.0265078655      -0.0133726549     -0.0623519168
 H      -0.0045306382      -0.0111252033      0.0287661279
 H       0.0473447536       0.0176279685      0.0236230269
 O      -0.0068957379      -0.0070360872      0.0696756114
 H       0.0267964589       0.0135863247     -0.0244049714
 H      -0.0166219089       0.0022671828     -0.0423798962
