90
terachem gradient in au, energy -1771.7058456376, grad_rms 0.047322, grad_max 0.190571 on atom 18
 H       0.0759158336       0.0620148312     -0.0327324107
 C      -0.0710400134      -0.0671002230      0.0190157597
 H       0.0057375643      -0.0027749505     -0.0017737840
 H       0.0003923199       0.0053335577      0.0037049709
 N      -0.0363093516      -0.0122708512      0.0353999993
 H       0.0004310710       0.0128924490     -0.0247587951
 C       0.0253863640      -0.0071173466      0.0553689308
 N      -0.0411947976       0.0112518205     -0.0599262402
 H       0.0272925562      -0.0071445458      0.0011598055
 H      -0.0053619018       0.0033947462      0.0052508598
 N       0.0136679524      -0.0203978288     -0.0156671138
 H       0.0056683597      -0.0019028110      0.0056869832
 H      -0.0061666598       0.0144078704     -0.0090399534
 H       0.0794516889      -0.0066201460     -0.0517471022
 C      -0.1146476598       0.0258394073      0.0484002415
 H       0.0031662579      -0.0089242182     -0.0025359203
 H       0.0039365534       0.0007007105     -0.0012283402
 C       0.0727115413      -0.0789639941     -0.1574639824
 O      -0.0328013927       0.0075648533      0.0110629131
 O      -0.0170692246       0.0523757478      0.1423704460
 H      -0.0544472475      -0.0548295678     -0.0573267390
 C       0.0739401091       0.0367433682      0.0437354603
 H       0.0013491886       0.0040263023      0.0084260416
 H      -0.0064750164       0.0029566093      0.0037703286
 C       0.0042917657       0.0014982795      0.0398780961
 O      -0.0142415136       0.0106250319      0.0124034032
 O      -0.0133527602      -0.0057932547     -0.0342212776
 H      -0.0952890121       0.0199122482     -0.0383156782
 C       0.0978053137      -0.0241741450      0.0410260748
 H       0.0010330383       0.0075518334      0.0016953122
 H      -0.0013246900      -0.0057975747     -0.0016094026
 N      -0.0065056018      -0.0176001265      0.0277919088
 H      -0.0097247726       0.0065217431     -0.0127121410
 C       0.0085862749       0.0167873785     -0.0082443893
 H       0.0003231342       0.0068103694      0.0168547210
 C      -0.0051315261       0.0005487693     -0.0007364588
 H       0.0059585386      -0.0065616843     -0.0062688696
 C      -0.0030060616       0.0031287356      0.0238590603
 C       0.0078234138       0.0185396440     -0.0082372079
 H      -0.0097325157      -0.0062688417     -0.0027885663
 H      -0.0030037366      -0.0017698951     -0.0049646078
 H       0.0039249537      -0.0066152769     -0.0053084370
 C       0.0018641139       0.0762503733      0.0251929034
 H      -0.0020712721      -0.0075082362     -0.0149158570
 C       0.0007247574      -0.0936270428     -0.0045085940
 H       0.0065078145       0.0124411325      0.0096803907
 C       0.0016585923       0.0258241919     -0.0093423488
 H       0.0014104992      -0.0047952233      0.0024003348
 C      -0.0080316794      -0.0057470497      0.0088462061
 C       0.0031363376       0.0012582271      0.0034000233
 H       0.0069791303      -0.0023503627     -0.0052389993
 H      -0.0078455602      -0.0056023916      0.0038787372
 H      -0.0003803264       0.0044480342     -0.0052785217
 C      -0.0001779792      -0.0268844500      0.0009105387
 H       0.0018183659       0.0072642136      0.0007736705
 C      -0.0107104155       0.0423328293     -0.0201413610
 H       0.0058654404      -0.0070860222      0.0051139074
 C       0.0127661659      -0.0311980517     -0.0058697457
 C       0.0041441660       0.0198281059      0.0070942352
 C      -0.0100792206       0.0031205979     -0.0125996216
 H       0.0000262459      -0.0046406239      0.0046713357
 H       0.0044721810       0.0030942390      0.0030619356
 H      -0.0062760207       0.0001050759     -0.0014676477
 C       0.0091797146      -0.0020986155      0.0140000304
 H       0.0047942666      -0.0058979068     -0.0068836434
 H      -0.0092816243      -0.0017126277      0.0017310812
 C      -0.0173327648       0.0200864230     -0.0110031399
 H       0.0115938816      -0.0010301390      0.0005629736
 H       0.0010460018      -0.0085225562      0.0037840422
 C       0.0249100112       0.0089691412     -0.0100323995
 H      -0.0185519107      -0.0075603735      0.0047490420
 H       0.0045635959      -0.0005117817      0.0096486461
 C      -0.0153574753      -0.0128295856      0.0113788570
 C      -0.0055298975      -0.0276635888     -0.0013299419
 H       0.0023971228       0.0059365099     -0.0028431085
 H       0.0028997361       0.0086934533     -0.0009563083
 H       0.0049144344       0.0126574568     -0.0017317642
 C      -0.0117611889       0.0054229911     -0.0049591366
 H      -0.0005756394      -0.0074063764      0.0041311708
 H       0.0008184039       0.0084062651      0.0038946846
 H       0.0082642647       0.0033285377     -0.0031083122
 O       0.0114553535       0.0123048118     -0.0247167403
 H       0.0012094997       0.0012538983      0.0094040280
 H      -0.0196145564      -0.0154791759      0.0190423301
 O       0.0305943008       0.0052678039      0.0102923878
 H      -0.0038837118      -0.0007978973     -0.0168698398
 H      -0.0095020820      -0.0173811488     -0.0120307073
 O       0.0142558679       0.0029569949     -0.0106131979
 H      -0.0071284906       0.0002664606      0.0116267425
 H      -0.0044072792       0.0085983809      0.0076621020
