90
terachem gradient in au, energy -1771.7741115385, grad_rms 0.036453, grad_max 0.109082 on atom 22
 H       0.0754735638       0.0657435660     -0.0263565742
 C      -0.0781686392      -0.0661602306      0.0262956981
 H       0.0018082455       0.0020462728     -0.0015100082
 H      -0.0014497752       0.0019414053     -0.0003426188
 N       0.0056057428      -0.0073039262      0.0064669845
 H      -0.0026892247       0.0016080601     -0.0046423282
 C       0.0008186116      -0.0172421167     -0.0104855151
 N      -0.0048766251       0.0085437148     -0.0070673396
 H      -0.0056354951       0.0029375973     -0.0037225942
 H       0.0018896459      -0.0104372264     -0.0039898132
 N      -0.0102280104       0.0034100737      0.0089906068
 H       0.0038321791       0.0053434640     -0.0046112633
 H       0.0068110557      -0.0025120134      0.0016588231
 H       0.0818465895      -0.0039439395     -0.0491126426
 C      -0.0868348327       0.0048489848      0.0523537367
 H      -0.0007987152       0.0064789912     -0.0042259474
 H      -0.0009989822      -0.0059808066     -0.0034439468
 C      -0.0050031205       0.0026759145      0.0147203452
 O      -0.0169672462       0.0050412335      0.0183730687
 O       0.0190182034      -0.0142448444     -0.0357807686
 H      -0.0521446882      -0.0525922570     -0.0583589163
 C       0.0662738363       0.0540683989      0.0676994778
 H      -0.0015154736      -0.0012014772      0.0021888901
 H      -0.0059816373      -0.0044147115     -0.0015507203
 C       0.0188058936      -0.0115585024     -0.0027582071
 O      -0.0146366257      -0.0115228773     -0.0079384972
 O      -0.0190328164       0.0263123473      0.0167369365
 H      -0.0939003606       0.0246237199     -0.0391799641
 C       0.0937021116      -0.0177478192      0.0361786671
 H      -0.0014940230      -0.0002718691      0.0013860900
 H      -0.0031688746      -0.0090077163      0.0045260853
 N       0.0034324388      -0.0154507402     -0.0025590153
 H      -0.0033647755       0.0132040415      0.0213853055
 C      -0.0049798094       0.0242338474      0.0052873188
 H       0.0024616831       0.0018456302     -0.0035053962
 C       0.0052450415      -0.0113245040      0.0135029375
 H       0.0032589485      -0.0002668398      0.0055133375
 C      -0.0008507943      -0.0084489510     -0.0129112355
 C       0.0002316117       0.0041407595     -0.0069915997
 H      -0.0013288975       0.0009666005     -0.0008950682
 H       0.0005066436       0.0009524036      0.0069663572
 H       0.0020758432       0.0024534539      0.0039141916
 C      -0.0075084656       0.0752289853      0.0264932008
 H      -0.0022492269      -0.0068603783     -0.0156740767
 C       0.0076981625      -0.0648464855     -0.0251030770
 H       0.0002436928       0.0075236244      0.0139918219
 C      -0.0020131217      -0.0003785244      0.0062570459
 H       0.0004705472      -0.0056376947     -0.0022861714
 C       0.0014823196       0.0094364800     -0.0083916182
 C      -0.0005334724      -0.0026434245      0.0015756428
 H      -0.0028428413       0.0056731304      0.0012489384
 H      -0.0020675281       0.0016797011     -0.0023880475
 H       0.0018345065      -0.0022902093     -0.0008327511
 C      -0.0126132249      -0.0751944329      0.0198534768
 H       0.0066971792       0.0133089775      0.0091022074
 C       0.0182489924       0.0678345402     -0.0136884296
 H      -0.0086518674      -0.0097420059     -0.0088747593
 C       0.0022715508      -0.0281741568      0.0091922613
 C      -0.0079988533       0.0255476626     -0.0038309897
 C      -0.0017868745      -0.0038919074     -0.0019645479
 H      -0.0006354824       0.0032436448     -0.0004313787
 H      -0.0010952651      -0.0013512361     -0.0012734089
 H       0.0025749166       0.0023113339      0.0030459975
 C      -0.0002761298      -0.0045898815     -0.0065280204
 H      -0.0015574371       0.0037962255      0.0027244890
 H       0.0031472335      -0.0044500916      0.0006720073
 C      -0.0013332930      -0.0041932192     -0.0035369990
 H       0.0027768883       0.0001448021      0.0026608845
 H       0.0000774863       0.0006483931      0.0004977923
 C       0.0041722433      -0.0035323292      0.0035290455
 H      -0.0002891391      -0.0000522005      0.0023531009
 H      -0.0046354608       0.0012985294      0.0034143183
 C       0.0085792688       0.0089156201     -0.0006621003
 C       0.0059332499       0.0011252472     -0.0021140743
 H      -0.0047608172      -0.0019008582      0.0013426401
 H      -0.0033934160      -0.0001008814      0.0014070971
 H      -0.0035790316       0.0026167998     -0.0023273607
 C      -0.0002905372       0.0014668470     -0.0022058521
 H       0.0007337389      -0.0001191475      0.0005420791
 H      -0.0044354692      -0.0025800151     -0.0058440234
 H       0.0037517357       0.0020189867      0.0026561871
 O      -0.0030535414      -0.0022396460      0.0025263090
 H       0.0017639656      -0.0004200300      0.0038301809
 H      -0.0040435501       0.0005002097     -0.0040877287
 O       0.0001851564      -0.0087864323     -0.0104144012
 H      -0.0004818731      -0.0022684187     -0.0152446298
 H       0.0163458834      -0.0096422371     -0.0021627098
 O      -0.0018236769       0.0059030510      0.0027441528
 H       0.0021693706       0.0014077362     -0.0002360482
 H       0.0033562915       0.0037874097      0.0040819634
